+ 1 /NodeList/0/DeviceList/0/$ns3::PointToPointNetDevice/TxQueue/Enqueue ns3::PppHeader (Point-to-Point Protocol: IP (0x0021)) ns3::Ipv4Header (tos 0x0 DSCP Default ECN Not-ECT ttl 64 id 0 protocol 6 offset (bytes) 0 flags [none] length: 56 10.1.3.1 > 10.1.3.10) ns3::TcpHeader (49153 > 50000 [SYN] Seq=0 Ack=0 Win=65535 ns3::TcpOptionTS(1000;0) ns3::TcpOptionWinScale(2) ns3::TcpOptionSackPermitted([sack_perm]) ns3::TcpOptionEnd(EOL))
- 1 /NodeList/0/DeviceList/0/$ns3::PointToPointNetDevice/TxQueue/Dequeue ns3::PppHeader (Point-to-Point Protocol: IP (0x0021)) ns3::Ipv4Header (tos 0x0 DSCP Default ECN Not-ECT ttl 64 id 0 protocol 6 offset (bytes) 0 flags [none] length: 56 10.1.3.1 > 10.1.3.10) ns3::TcpHeader (49153 > 50000 [SYN] Seq=0 Ack=0 Win=65535 ns3::TcpOptionTS(1000;0) ns3::TcpOptionWinScale(2) ns3::TcpOptionSackPermitted([sack_perm]) ns3::TcpOptionEnd(EOL))
+ 1 /NodeList/1/DeviceList/0/$ns3::PointToPointNetDevice/TxQueue/Enqueue ns3::PppHeader (Point-to-Point Protocol: IP (0x0021)) ns3::Ipv4Header (tos 0x0 DSCP Default ECN Not-ECT ttl 64 id 0 protocol 6 offset (bytes) 0 flags [none] length: 56 10.1.3.3 > 10.1.3.12) ns3::TcpHeader (49153 > 50000 [SYN] Seq=0 Ack=0 Win=65535 ns3::TcpOptionTS(1000;0) ns3::TcpOptionWinScale(2) ns3::TcpOptionSackPermitted([sack_perm]) ns3::TcpOptionEnd(EOL))
- 1 /NodeList/1/DeviceList/0/$ns3::PointToPointNetDevice/TxQueue/Dequeue ns3::PppHeader (Point-to-Point Protocol: IP (0x0021)) ns3::Ipv4Header (tos 0x0 DSCP Default ECN Not-ECT ttl 64 id 0 protocol 6 offset (bytes) 0 flags [none] length: 56 10.1.3.3 > 10.1.3.12) ns3::TcpHeader (49153 > 50000 [SYN] Seq=0 Ack=0 Win=65535 ns3::TcpOptionTS(1000;0) ns3::TcpOptionWinScale(2) ns3::TcpOptionSackPermitted([sack_perm]) ns3::TcpOptionEnd(EOL))
r 1.00209 /NodeList/3/DeviceList/0/$ns3::PointToPointNetDevice/MacRx ns3::PppHeader (Point-to-Point Protocol: IP (0x0021)) ns3::Ipv4Header (tos 0x0 DSCP Default ECN Not-ECT ttl 64 id 0 protocol 6 offset (bytes) 0 flags [none] length: 56 10.1.3.1 > 10.1.3.10) ns3::TcpHeader (49153 > 50000 [SYN] Seq=0 Ack=0 Win=65535 ns3::TcpOptionTS(1000;0) ns3::TcpOptionWinScale(2) ns3::TcpOptionSackPermitted([sack_perm]) ns3::TcpOptionEnd(EOL))
+ 1.00209 /NodeList/3/DeviceList/4/$ns3::PointToPointNetDevice/TxQueue/Enqueue ns3::PppHeader (Point-to-Point Protocol: IP (0x0021)) ns3::Ipv4Header (tos 0x0 DSCP Default ECN Not-ECT ttl 63 id 0 protocol 6 offset (bytes) 0 flags [none] length: 56 10.1.3.1 > 10.1.3.10) ns3::TcpHeader (49153 > 50000 [SYN] Seq=0 Ack=0 Win=65535 ns3::TcpOptionTS(1000;0) ns3::TcpOptionWinScale(2) ns3::TcpOptionSackPermitted([sack_perm]) ns3::TcpOptionEnd(EOL))
- 1.00209 /NodeList/3/DeviceList/4/$ns3::PointToPointNetDevice/TxQueue/Dequeue ns3::PppHeader (Point-to-Point Protocol: IP (0x0021)) ns3::Ipv4Header (tos 0x0 DSCP Default ECN Not-ECT ttl 63 id 0 protocol 6 offset (bytes) 0 flags [none] length: 56 10.1.3.1 > 10.1.3.10) ns3::TcpHeader (49153 > 50000 [SYN] Seq=0 Ack=0 Win=65535 ns3::TcpOptionTS(1000;0) ns3::TcpOptionWinScale(2) ns3::TcpOptionSackPermitted([sack_perm]) ns3::TcpOptionEnd(EOL))
r 1.00209 /NodeList/3/DeviceList/1/$ns3::PointToPointNetDevice/MacRx ns3::PppHeader (Point-to-Point Protocol: IP (0x0021)) ns3::Ipv4Header (tos 0x0 DSCP Default ECN Not-ECT ttl 64 id 0 protocol 6 offset (bytes) 0 flags [none] length: 56 10.1.3.3 > 10.1.3.12) ns3::TcpHeader (49153 > 50000 [SYN] Seq=0 Ack=0 Win=65535 ns3::TcpOptionTS(1000;0) ns3::TcpOptionWinScale(2) ns3::TcpOptionSackPermitted([sack_perm]) ns3::TcpOptionEnd(EOL))
+ 1.00209 /NodeList/3/DeviceList/4/$ns3::PointToPointNetDevice/TxQueue/Enqueue ns3::PppHeader (Point-to-Point Protocol: IP (0x0021)) ns3::Ipv4Header (tos 0x0 DSCP Default ECN Not-ECT ttl 63 id 0 protocol 6 offset (bytes) 0 flags [none] length: 56 10.1.3.3 > 10.1.3.12) ns3::TcpHeader (49153 > 50000 [SYN] Seq=0 Ack=0 Win=65535 ns3::TcpOptionTS(1000;0) ns3::TcpOptionWinScale(2) ns3::TcpOptionSackPermitted([sack_perm]) ns3::TcpOptionEnd(EOL))
- 1.00219 /NodeList/3/DeviceList/4/$ns3::PointToPointNetDevice/TxQueue/Dequeue ns3::PppHeader (Point-to-Point Protocol: IP (0x0021)) ns3::Ipv4Header (tos 0x0 DSCP Default ECN Not-ECT ttl 63 id 0 protocol 6 offset (bytes) 0 flags [none] length: 56 10.1.3.3 > 10.1.3.12) ns3::TcpHeader (49153 > 50000 [SYN] Seq=0 Ack=0 Win=65535 ns3::TcpOptionTS(1000;0) ns3::TcpOptionWinScale(2) ns3::TcpOptionSackPermitted([sack_perm]) ns3::TcpOptionEnd(EOL))
r 1.00419 /NodeList/5/DeviceList/2/$ns3::PointToPointNetDevice/MacRx ns3::PppHeader (Point-to-Point Protocol: IP (0x0021)) ns3::Ipv4Header (tos 0x0 DSCP Default ECN Not-ECT ttl 63 id 0 protocol 6 offset (bytes) 0 flags [none] length: 56 10.1.3.1 > 10.1.3.10) ns3::TcpHeader (49153 > 50000 [SYN] Seq=0 Ack=0 Win=65535 ns3::TcpOptionTS(1000;0) ns3::TcpOptionWinScale(2) ns3::TcpOptionSackPermitted([sack_perm]) ns3::TcpOptionEnd(EOL))
+ 1.00419 /NodeList/5/DeviceList/2/$ns3::PointToPointNetDevice/TxQueue/Enqueue ns3::PppHeader (Point-to-Point Protocol: IP (0x0021)) ns3::Ipv4Header (tos 0x0 DSCP Default ECN Not-ECT ttl 64 id 0 protocol 6 offset (bytes) 0 flags [none] length: 40 10.1.3.10 > 10.1.3.1) ns3::TcpHeader (50000 > 49153 [RST|ACK] Seq=0 Ack=1 Win=65535)
- 1.00419 /NodeList/5/DeviceList/2/$ns3::PointToPointNetDevice/TxQueue/Dequeue ns3::PppHeader (Point-to-Point Protocol: IP (0x0021)) ns3::Ipv4Header (tos 0x0 DSCP Default ECN Not-ECT ttl 64 id 0 protocol 6 offset (bytes) 0 flags [none] length: 40 10.1.3.10 > 10.1.3.1) ns3::TcpHeader (50000 > 49153 [RST|ACK] Seq=0 Ack=1 Win=65535)
r 1.00428 /NodeList/5/DeviceList/2/$ns3::PointToPointNetDevice/MacRx ns3::PppHeader (Point-to-Point Protocol: IP (0x0021)) ns3::Ipv4Header (tos 0x0 DSCP Default ECN Not-ECT ttl 63 id 0 protocol 6 offset (bytes) 0 flags [none] length: 56 10.1.3.3 > 10.1.3.12) ns3::TcpHeader (49153 > 50000 [SYN] Seq=0 Ack=0 Win=65535 ns3::TcpOptionTS(1000;0) ns3::TcpOptionWinScale(2) ns3::TcpOptionSackPermitted([sack_perm]) ns3::TcpOptionEnd(EOL))
+ 1.00428 /NodeList/5/DeviceList/2/$ns3::PointToPointNetDevice/TxQueue/Enqueue ns3::PppHeader (Point-to-Point Protocol: IP (0x0021)) ns3::Ipv4Header (tos 0x0 DSCP Default ECN Not-ECT ttl 64 id 0 protocol 6 offset (bytes) 0 flags [none] length: 40 10.1.3.12 > 10.1.3.3) ns3::TcpHeader (50000 > 49153 [RST|ACK] Seq=0 Ack=1 Win=65535)
- 1.00428 /NodeList/5/DeviceList/2/$ns3::PointToPointNetDevice/TxQueue/Dequeue ns3::PppHeader (Point-to-Point Protocol: IP (0x0021)) ns3::Ipv4Header (tos 0x0 DSCP Default ECN Not-ECT ttl 64 id 0 protocol 6 offset (bytes) 0 flags [none] length: 40 10.1.3.12 > 10.1.3.3) ns3::TcpHeader (50000 > 49153 [RST|ACK] Seq=0 Ack=1 Win=65535)
r 1.00625 /NodeList/3/DeviceList/4/$ns3::PointToPointNetDevice/MacRx ns3::PppHeader (Point-to-Point Protocol: IP (0x0021)) ns3::Ipv4Header (tos 0x0 DSCP Default ECN Not-ECT ttl 64 id 0 protocol 6 offset (bytes) 0 flags [none] length: 40 10.1.3.10 > 10.1.3.1) ns3::TcpHeader (50000 > 49153 [RST|ACK] Seq=0 Ack=1 Win=65535)
+ 1.00625 /NodeList/3/DeviceList/4/$ns3::PointToPointNetDevice/TxQueue/Enqueue ns3::PppHeader (Point-to-Point Protocol: IP (0x0021)) ns3::Ipv4Header (tos 0x0 DSCP Default ECN Not-ECT ttl 63 id 0 protocol 6 offset (bytes) 0 flags [none] length: 40 10.1.3.10 > 10.1.3.1) ns3::TcpHeader (50000 > 49153 [RST|ACK] Seq=0 Ack=1 Win=65535)
- 1.00625 /NodeList/3/DeviceList/4/$ns3::PointToPointNetDevice/TxQueue/Dequeue ns3::PppHeader (Point-to-Point Protocol: IP (0x0021)) ns3::Ipv4Header (tos 0x0 DSCP Default ECN Not-ECT ttl 63 id 0 protocol 6 offset (bytes) 0 flags [none] length: 40 10.1.3.10 > 10.1.3.1) ns3::TcpHeader (50000 > 49153 [RST|ACK] Seq=0 Ack=1 Win=65535)
r 1.00635 /NodeList/3/DeviceList/4/$ns3::PointToPointNetDevice/MacRx ns3::PppHeader (Point-to-Point Protocol: IP (0x0021)) ns3::Ipv4Header (tos 0x0 DSCP Default ECN Not-ECT ttl 64 id 0 protocol 6 offset (bytes) 0 flags [none] length: 40 10.1.3.12 > 10.1.3.3) ns3::TcpHeader (50000 > 49153 [RST|ACK] Seq=0 Ack=1 Win=65535)
+ 1.00635 /NodeList/3/DeviceList/4/$ns3::PointToPointNetDevice/TxQueue/Enqueue ns3::PppHeader (Point-to-Point Protocol: IP (0x0021)) ns3::Ipv4Header (tos 0x0 DSCP Default ECN Not-ECT ttl 63 id 0 protocol 6 offset (bytes) 0 flags [none] length: 40 10.1.3.12 > 10.1.3.3) ns3::TcpHeader (50000 > 49153 [RST|ACK] Seq=0 Ack=1 Win=65535)
- 1.00635 /NodeList/3/DeviceList/4/$ns3::PointToPointNetDevice/TxQueue/Dequeue ns3::PppHeader (Point-to-Point Protocol: IP (0x0021)) ns3::Ipv4Header (tos 0x0 DSCP Default ECN Not-ECT ttl 63 id 0 protocol 6 offset (bytes) 0 flags [none] length: 40 10.1.3.12 > 10.1.3.3) ns3::TcpHeader (50000 > 49153 [RST|ACK] Seq=0 Ack=1 Win=65535)
r 1.00832 /NodeList/5/DeviceList/2/$ns3::PointToPointNetDevice/MacRx ns3::PppHeader (Point-to-Point Protocol: IP (0x0021)) ns3::Ipv4Header (tos 0x0 DSCP Default ECN Not-ECT ttl 63 id 0 protocol 6 offset (bytes) 0 flags [none] length: 40 10.1.3.10 > 10.1.3.1) ns3::TcpHeader (50000 > 49153 [RST|ACK] Seq=0 Ack=1 Win=65535)
+ 1.00832 /NodeList/5/DeviceList/2/$ns3::PointToPointNetDevice/TxQueue/Enqueue ns3::PppHeader (Point-to-Point Protocol: IP (0x0021)) ns3::Ipv4Header (tos 0x0 DSCP Default ECN Not-ECT ttl 62 id 0 protocol 6 offset (bytes) 0 flags [none] length: 40 10.1.3.10 > 10.1.3.1) ns3::TcpHeader (50000 > 49153 [RST|ACK] Seq=0 Ack=1 Win=65535)
- 1.00832 /NodeList/5/DeviceList/2/$ns3::PointToPointNetDevice/TxQueue/Dequeue ns3::PppHeader (Point-to-Point Protocol: IP (0x0021)) ns3::Ipv4Header (tos 0x0 DSCP Default ECN Not-ECT ttl 62 id 0 protocol 6 offset (bytes) 0 flags [none] length: 40 10.1.3.10 > 10.1.3.1) ns3::TcpHeader (50000 > 49153 [RST|ACK] Seq=0 Ack=1 Win=65535)
r 1.00841 /NodeList/5/DeviceList/2/$ns3::PointToPointNetDevice/MacRx ns3::PppHeader (Point-to-Point Protocol: IP (0x0021)) ns3::Ipv4Header (tos 0x0 DSCP Default ECN Not-ECT ttl 63 id 0 protocol 6 offset (bytes) 0 flags [none] length: 40 10.1.3.12 > 10.1.3.3) ns3::TcpHeader (50000 > 49153 [RST|ACK] Seq=0 Ack=1 Win=65535)
+ 1.00841 /NodeList/5/DeviceList/2/$ns3::PointToPointNetDevice/TxQueue/Enqueue ns3::PppHeader (Point-to-Point Protocol: IP (0x0021)) ns3::Ipv4Header (tos 0x0 DSCP Default ECN Not-ECT ttl 62 id 0 protocol 6 offset (bytes) 0 flags [none] length: 40 10.1.3.12 > 10.1.3.3) ns3::TcpHeader (50000 > 49153 [RST|ACK] Seq=0 Ack=1 Win=65535)
- 1.00841 /NodeList/5/DeviceList/2/$ns3::PointToPointNetDevice/TxQueue/Dequeue ns3::PppHeader (Point-to-Point Protocol: IP (0x0021)) ns3::Ipv4Header (tos 0x0 DSCP Default ECN Not-ECT ttl 62 id 0 protocol 6 offset (bytes) 0 flags [none] length: 40 10.1.3.12 > 10.1.3.3) ns3::TcpHeader (50000 > 49153 [RST|ACK] Seq=0 Ack=1 Win=65535)
r 1.01039 /NodeList/3/DeviceList/4/$ns3::PointToPointNetDevice/MacRx ns3::PppHeader (Point-to-Point Protocol: IP (0x0021)) ns3::Ipv4Header (tos 0x0 DSCP Default ECN Not-ECT ttl 62 id 0 protocol 6 offset (bytes) 0 flags [none] length: 40 10.1.3.10 > 10.1.3.1) ns3::TcpHeader (50000 > 49153 [RST|ACK] Seq=0 Ack=1 Win=65535)
+ 1.01039 /NodeList/3/DeviceList/4/$ns3::PointToPointNetDevice/TxQueue/Enqueue ns3::PppHeader (Point-to-Point Protocol: IP (0x0021)) ns3::Ipv4Header (tos 0x0 DSCP Default ECN Not-ECT ttl 61 id 0 protocol 6 offset (bytes) 0 flags [none] length: 40 10.1.3.10 > 10.1.3.1) ns3::TcpHeader (50000 > 49153 [RST|ACK] Seq=0 Ack=1 Win=65535)
- 1.01039 /NodeList/3/DeviceList/4/$ns3::PointToPointNetDevice/TxQueue/Dequeue ns3::PppHeader (Point-to-Point Protocol: IP (0x0021)) ns3::Ipv4Header (tos 0x0 DSCP Default ECN Not-ECT ttl 61 id 0 protocol 6 offset (bytes) 0 flags [none] length: 40 10.1.3.10 > 10.1.3.1) ns3::TcpHeader (50000 > 49153 [RST|ACK] Seq=0 Ack=1 Win=65535)
r 1.01048 /NodeList/3/DeviceList/4/$ns3::PointToPointNetDevice/MacRx ns3::PppHeader (Point-to-Point Protocol: IP (0x0021)) ns3::Ipv4Header (tos 0x0 DSCP Default ECN Not-ECT ttl 62 id 0 protocol 6 offset (bytes) 0 flags [none] length: 40 10.1.3.12 > 10.1.3.3) ns3::TcpHeader (50000 > 49153 [RST|ACK] Seq=0 Ack=1 Win=65535)
+ 1.01048 /NodeList/3/DeviceList/4/$ns3::PointToPointNetDevice/TxQueue/Enqueue ns3::PppHeader (Point-to-Point Protocol: IP (0x0021)) ns3::Ipv4Header (tos 0x0 DSCP Default ECN Not-ECT ttl 61 id 0 protocol 6 offset (bytes) 0 flags [none] length: 40 10.1.3.12 > 10.1.3.3) ns3::TcpHeader (50000 > 49153 [RST|ACK] Seq=0 Ack=1 Win=65535)
- 1.01048 /NodeList/3/DeviceList/4/$ns3::PointToPointNetDevice/TxQueue/Dequeue ns3::PppHeader (Point-to-Point Protocol: IP (0x0021)) ns3::Ipv4Header (tos 0x0 DSCP Default ECN Not-ECT ttl 61 id 0 protocol 6 offset (bytes) 0 flags [none] length: 40 10.1.3.12 > 10.1.3.3) ns3::TcpHeader (50000 > 49153 [RST|ACK] Seq=0 Ack=1 Win=65535)
r 1.01245 /NodeList/5/DeviceList/2/$ns3::PointToPointNetDevice/MacRx ns3::PppHeader (Point-to-Point Protocol: IP (0x0021)) ns3::Ipv4Header (tos 0x0 DSCP Default ECN Not-ECT ttl 61 id 0 protocol 6 offset (bytes) 0 flags [none] length: 40 10.1.3.10 > 10.1.3.1) ns3::TcpHeader (50000 > 49153 [RST|ACK] Seq=0 Ack=1 Win=65535)
+ 1.01245 /NodeList/5/DeviceList/2/$ns3::PointToPointNetDevice/TxQueue/Enqueue ns3::PppHeader (Point-to-Point Protocol: IP (0x0021)) ns3::Ipv4Header (tos 0x0 DSCP Default ECN Not-ECT ttl 60 id 0 protocol 6 offset (bytes) 0 flags [none] length: 40 10.1.3.10 > 10.1.3.1) ns3::TcpHeader (50000 > 49153 [RST|ACK] Seq=0 Ack=1 Win=65535)
- 1.01245 /NodeList/5/DeviceList/2/$ns3::PointToPointNetDevice/TxQueue/Dequeue ns3::PppHeader (Point-to-Point Protocol: IP (0x0021)) ns3::Ipv4Header (tos 0x0 DSCP Default ECN Not-ECT ttl 60 id 0 protocol 6 offset (bytes) 0 flags [none] length: 40 10.1.3.10 > 10.1.3.1) ns3::TcpHeader (50000 > 49153 [RST|ACK] Seq=0 Ack=1 Win=65535)
r 1.01255 /NodeList/5/DeviceList/2/$ns3::PointToPointNetDevice/MacRx ns3::PppHeader (Point-to-Point Protocol: IP (0x0021)) ns3::Ipv4Header (tos 0x0 DSCP Default ECN Not-ECT ttl 61 id 0 protocol 6 offset (bytes) 0 flags [none] length: 40 10.1.3.12 > 10.1.3.3) ns3::TcpHeader (50000 > 49153 [RST|ACK] Seq=0 Ack=1 Win=65535)
+ 1.01255 /NodeList/5/DeviceList/2/$ns3::PointToPointNetDevice/TxQueue/Enqueue ns3::PppHeader (Point-to-Point Protocol: IP (0x0021)) ns3::Ipv4Header (tos 0x0 DSCP Default ECN Not-ECT ttl 60 id 0 protocol 6 offset (bytes) 0 flags [none] length: 40 10.1.3.12 > 10.1.3.3) ns3::TcpHeader (50000 > 49153 [RST|ACK] Seq=0 Ack=1 Win=65535)
- 1.01255 /NodeList/5/DeviceList/2/$ns3::PointToPointNetDevice/TxQueue/Dequeue ns3::PppHeader (Point-to-Point Protocol: IP (0x0021)) ns3::Ipv4Header (tos 0x0 DSCP Default ECN Not-ECT ttl 60 id 0 protocol 6 offset (bytes) 0 flags [none] length: 40 10.1.3.12 > 10.1.3.3) ns3::TcpHeader (50000 > 49153 [RST|ACK] Seq=0 Ack=1 Win=65535)
r 1.01452 /NodeList/3/DeviceList/4/$ns3::PointToPointNetDevice/MacRx ns3::PppHeader (Point-to-Point Protocol: IP (0x0021)) ns3::Ipv4Header (tos 0x0 DSCP Default ECN Not-ECT ttl 60 id 0 protocol 6 offset (bytes) 0 flags [none] length: 40 10.1.3.10 > 10.1.3.1) ns3::TcpHeader (50000 > 49153 [RST|ACK] Seq=0 Ack=1 Win=65535)
+ 1.01452 /NodeList/3/DeviceList/4/$ns3::PointToPointNetDevice/TxQueue/Enqueue ns3::PppHeader (Point-to-Point Protocol: IP (0x0021)) ns3::Ipv4Header (tos 0x0 DSCP Default ECN Not-ECT ttl 59 id 0 protocol 6 offset (bytes) 0 flags [none] length: 40 10.1.3.10 > 10.1.3.1) ns3::TcpHeader (50000 > 49153 [RST|ACK] Seq=0 Ack=1 Win=65535)
- 1.01452 /NodeList/3/DeviceList/4/$ns3::PointToPointNetDevice/TxQueue/Dequeue ns3::PppHeader (Point-to-Point Protocol: IP (0x0021)) ns3::Ipv4Header (tos 0x0 DSCP Default ECN Not-ECT ttl 59 id 0 protocol 6 offset (bytes) 0 flags [none] length: 40 10.1.3.10 > 10.1.3.1) ns3::TcpHeader (50000 > 49153 [RST|ACK] Seq=0 Ack=1 Win=65535)
r 1.01461 /NodeList/3/DeviceList/4/$ns3::PointToPointNetDevice/MacRx ns3::PppHeader (Point-to-Point Protocol: IP (0x0021)) ns3::Ipv4Header (tos 0x0 DSCP Default ECN Not-ECT ttl 60 id 0 protocol 6 offset (bytes) 0 flags [none] length: 40 10.1.3.12 > 10.1.3.3) ns3::TcpHeader (50000 > 49153 [RST|ACK] Seq=0 Ack=1 Win=65535)
+ 1.01461 /NodeList/3/DeviceList/4/$ns3::PointToPointNetDevice/TxQueue/Enqueue ns3::PppHeader (Point-to-Point Protocol: IP (0x0021)) ns3::Ipv4Header (tos 0x0 DSCP Default ECN Not-ECT ttl 59 id 0 protocol 6 offset (bytes) 0 flags [none] length: 40 10.1.3.12 > 10.1.3.3) ns3::TcpHeader (50000 > 49153 [RST|ACK] Seq=0 Ack=1 Win=65535)
- 1.01461 /NodeList/3/DeviceList/4/$ns3::PointToPointNetDevice/TxQueue/Dequeue ns3::PppHeader (Point-to-Point Protocol: IP (0x0021)) ns3::Ipv4Header (tos 0x0 DSCP Default ECN Not-ECT ttl 59 id 0 protocol 6 offset (bytes) 0 flags [none] length: 40 10.1.3.12 > 10.1.3.3) ns3::TcpHeader (50000 > 49153 [RST|ACK] Seq=0 Ack=1 Win=65535)
r 1.01659 /NodeList/5/DeviceList/2/$ns3::PointToPointNetDevice/MacRx ns3::PppHeader (Point-to-Point Protocol: IP (0x0021)) ns3::Ipv4Header (tos 0x0 DSCP Default ECN Not-ECT ttl 59 id 0 protocol 6 offset (bytes) 0 flags [none] length: 40 10.1.3.10 > 10.1.3.1) ns3::TcpHeader (50000 > 49153 [RST|ACK] Seq=0 Ack=1 Win=65535)
+ 1.01659 /NodeList/5/DeviceList/2/$ns3::PointToPointNetDevice/TxQueue/Enqueue ns3::PppHeader (Point-to-Point Protocol: IP (0x0021)) ns3::Ipv4Header (tos 0x0 DSCP Default ECN Not-ECT ttl 58 id 0 protocol 6 offset (bytes) 0 flags [none] length: 40 10.1.3.10 > 10.1.3.1) ns3::TcpHeader (50000 > 49153 [RST|ACK] Seq=0 Ack=1 Win=65535)
- 1.01659 /NodeList/5/DeviceList/2/$ns3::PointToPointNetDevice/TxQueue/Dequeue ns3::PppHeader (Point-to-Point Protocol: IP (0x0021)) ns3::Ipv4Header (tos 0x0 DSCP Default ECN Not-ECT ttl 58 id 0 protocol 6 offset (bytes) 0 flags [none] length: 40 10.1.3.10 > 10.1.3.1) ns3::TcpHeader (50000 > 49153 [RST|ACK] Seq=0 Ack=1 Win=65535)
r 1.01668 /NodeList/5/DeviceList/2/$ns3::PointToPointNetDevice/MacRx ns3::PppHeader (Point-to-Point Protocol: IP (0x0021)) ns3::Ipv4Header (tos 0x0 DSCP Default ECN Not-ECT ttl 59 id 0 protocol 6 offset (bytes) 0 flags [none] length: 40 10.1.3.12 > 10.1.3.3) ns3::TcpHeader (50000 > 49153 [RST|ACK] Seq=0 Ack=1 Win=65535)
+ 1.01668 /NodeList/5/DeviceList/2/$ns3::PointToPointNetDevice/TxQueue/Enqueue ns3::PppHeader (Point-to-Point Protocol: IP (0x0021)) ns3::Ipv4Header (tos 0x0 DSCP Default ECN Not-ECT ttl 58 id 0 protocol 6 offset (bytes) 0 flags [none] length: 40 10.1.3.12 > 10.1.3.3) ns3::TcpHeader (50000 > 49153 [RST|ACK] Seq=0 Ack=1 Win=65535)
- 1.01668 /NodeList/5/DeviceList/2/$ns3::PointToPointNetDevice/TxQueue/Dequeue ns3::PppHeader (Point-to-Point Protocol: IP (0x0021)) ns3::Ipv4Header (tos 0x0 DSCP Default ECN Not-ECT ttl 58 id 0 protocol 6 offset (bytes) 0 flags [none] length: 40 10.1.3.12 > 10.1.3.3) ns3::TcpHeader (50000 > 49153 [RST|ACK] Seq=0 Ack=1 Win=65535)
r 1.01866 /NodeList/3/DeviceList/4/$ns3::PointToPointNetDevice/MacRx ns3::PppHeader (Point-to-Point Protocol: IP (0x0021)) ns3::Ipv4Header (tos 0x0 DSCP Default ECN Not-ECT ttl 58 id 0 protocol 6 offset (bytes) 0 flags [none] length: 40 10.1.3.10 > 10.1.3.1) ns3::TcpHeader (50000 > 49153 [RST|ACK] Seq=0 Ack=1 Win=65535)
+ 1.01866 /NodeList/3/DeviceList/4/$ns3::PointToPointNetDevice/TxQueue/Enqueue ns3::PppHeader (Point-to-Point Protocol: IP (0x0021)) ns3::Ipv4Header (tos 0x0 DSCP Default ECN Not-ECT ttl 57 id 0 protocol 6 offset (bytes) 0 flags [none] length: 40 10.1.3.10 > 10.1.3.1) ns3::TcpHeader (50000 > 49153 [RST|ACK] Seq=0 Ack=1 Win=65535)
- 1.01866 /NodeList/3/DeviceList/4/$ns3::PointToPointNetDevice/TxQueue/Dequeue ns3::PppHeader (Point-to-Point Protocol: IP (0x0021)) ns3::Ipv4Header (tos 0x0 DSCP Default ECN Not-ECT ttl 57 id 0 protocol 6 offset (bytes) 0 flags [none] length: 40 10.1.3.10 > 10.1.3.1) ns3::TcpHeader (50000 > 49153 [RST|ACK] Seq=0 Ack=1 Win=65535)
r 1.01875 /NodeList/3/DeviceList/4/$ns3::PointToPointNetDevice/MacRx ns3::PppHeader (Point-to-Point Protocol: IP (0x0021)) ns3::Ipv4Header (tos 0x0 DSCP Default ECN Not-ECT ttl 58 id 0 protocol 6 offset (bytes) 0 flags [none] length: 40 10.1.3.12 > 10.1.3.3) ns3::TcpHeader (50000 > 49153 [RST|ACK] Seq=0 Ack=1 Win=65535)
+ 1.01875 /NodeList/3/DeviceList/4/$ns3::PointToPointNetDevice/TxQueue/Enqueue ns3::PppHeader (Point-to-Point Protocol: IP (0x0021)) ns3::Ipv4Header (tos 0x0 DSCP Default ECN Not-ECT ttl 57 id 0 protocol 6 offset (bytes) 0 flags [none] length: 40 10.1.3.12 > 10.1.3.3) ns3::TcpHeader (50000 > 49153 [RST|ACK] Seq=0 Ack=1 Win=65535)
- 1.01875 /NodeList/3/DeviceList/4/$ns3::PointToPointNetDevice/TxQueue/Dequeue ns3::PppHeader (Point-to-Point Protocol: IP (0x0021)) ns3::Ipv4Header (tos 0x0 DSCP Default ECN Not-ECT ttl 57 id 0 protocol 6 offset (bytes) 0 flags [none] length: 40 10.1.3.12 > 10.1.3.3) ns3::TcpHeader (50000 > 49153 [RST|ACK] Seq=0 Ack=1 Win=65535)
r 1.02072 /NodeList/5/DeviceList/2/$ns3::PointToPointNetDevice/MacRx ns3::PppHeader (Point-to-Point Protocol: IP (0x0021)) ns3::Ipv4Header (tos 0x0 DSCP Default ECN Not-ECT ttl 57 id 0 protocol 6 offset (bytes) 0 flags [none] length: 40 10.1.3.10 > 10.1.3.1) ns3::TcpHeader (50000 > 49153 [RST|ACK] Seq=0 Ack=1 Win=65535)
+ 1.02072 /NodeList/5/DeviceList/2/$ns3::PointToPointNetDevice/TxQueue/Enqueue ns3::PppHeader (Point-to-Point Protocol: IP (0x0021)) ns3::Ipv4Header (tos 0x0 DSCP Default ECN Not-ECT ttl 56 id 0 protocol 6 offset (bytes) 0 flags [none] length: 40 10.1.3.10 > 10.1.3.1) ns3::TcpHeader (50000 > 49153 [RST|ACK] Seq=0 Ack=1 Win=65535)
- 1.02072 /NodeList/5/DeviceList/2/$ns3::PointToPointNetDevice/TxQueue/Dequeue ns3::PppHeader (Point-to-Point Protocol: IP (0x0021)) ns3::Ipv4Header (tos 0x0 DSCP Default ECN Not-ECT ttl 56 id 0 protocol 6 offset (bytes) 0 flags [none] length: 40 10.1.3.10 > 10.1.3.1) ns3::TcpHeader (50000 > 49153 [RST|ACK] Seq=0 Ack=1 Win=65535)
r 1.02082 /NodeList/5/DeviceList/2/$ns3::PointToPointNetDevice/MacRx ns3::PppHeader (Point-to-Point Protocol: IP (0x0021)) ns3::Ipv4Header (tos 0x0 DSCP Default ECN Not-ECT ttl 57 id 0 protocol 6 offset (bytes) 0 flags [none] length: 40 10.1.3.12 > 10.1.3.3) ns3::TcpHeader (50000 > 49153 [RST|ACK] Seq=0 Ack=1 Win=65535)
+ 1.02082 /NodeList/5/DeviceList/2/$ns3::PointToPointNetDevice/TxQueue/Enqueue ns3::PppHeader (Point-to-Point Protocol: IP (0x0021)) ns3::Ipv4Header (tos 0x0 DSCP Default ECN Not-ECT ttl 56 id 0 protocol 6 offset (bytes) 0 flags [none] length: 40 10.1.3.12 > 10.1.3.3) ns3::TcpHeader (50000 > 49153 [RST|ACK] Seq=0 Ack=1 Win=65535)
- 1.02082 /NodeList/5/DeviceList/2/$ns3::PointToPointNetDevice/TxQueue/Dequeue ns3::PppHeader (Point-to-Point Protocol: IP (0x0021)) ns3::Ipv4Header (tos 0x0 DSCP Default ECN Not-ECT ttl 56 id 0 protocol 6 offset (bytes) 0 flags [none] length: 40 10.1.3.12 > 10.1.3.3) ns3::TcpHeader (50000 > 49153 [RST|ACK] Seq=0 Ack=1 Win=65535)
r 1.02279 /NodeList/3/DeviceList/4/$ns3::PointToPointNetDevice/MacRx ns3::PppHeader (Point-to-Point Protocol: IP (0x0021)) ns3::Ipv4Header (tos 0x0 DSCP Default ECN Not-ECT ttl 56 id 0 protocol 6 offset (bytes) 0 flags [none] length: 40 10.1.3.10 > 10.1.3.1) ns3::TcpHeader (50000 > 49153 [RST|ACK] Seq=0 Ack=1 Win=65535)
+ 1.02279 /NodeList/3/DeviceList/4/$ns3::PointToPointNetDevice/TxQueue/Enqueue ns3::PppHeader (Point-to-Point Protocol: IP (0x0021)) ns3::Ipv4Header (tos 0x0 DSCP Default ECN Not-ECT ttl 55 id 0 protocol 6 offset (bytes) 0 flags [none] length: 40 10.1.3.10 > 10.1.3.1) ns3::TcpHeader (50000 > 49153 [RST|ACK] Seq=0 Ack=1 Win=65535)
- 1.02279 /NodeList/3/DeviceList/4/$ns3::PointToPointNetDevice/TxQueue/Dequeue ns3::PppHeader (Point-to-Point Protocol: IP (0x0021)) ns3::Ipv4Header (tos 0x0 DSCP Default ECN Not-ECT ttl 55 id 0 protocol 6 offset (bytes) 0 flags [none] length: 40 10.1.3.10 > 10.1.3.1) ns3::TcpHeader (50000 > 49153 [RST|ACK] Seq=0 Ack=1 Win=65535)
r 1.02288 /NodeList/3/DeviceList/4/$ns3::PointToPointNetDevice/MacRx ns3::PppHeader (Point-to-Point Protocol: IP (0x0021)) ns3::Ipv4Header (tos 0x0 DSCP Default ECN Not-ECT ttl 56 id 0 protocol 6 offset (bytes) 0 flags [none] length: 40 10.1.3.12 > 10.1.3.3) ns3::TcpHeader (50000 > 49153 [RST|ACK] Seq=0 Ack=1 Win=65535)
+ 1.02288 /NodeList/3/DeviceList/4/$ns3::PointToPointNetDevice/TxQueue/Enqueue ns3::PppHeader (Point-to-Point Protocol: IP (0x0021)) ns3::Ipv4Header (tos 0x0 DSCP Default ECN Not-ECT ttl 55 id 0 protocol 6 offset (bytes) 0 flags [none] length: 40 10.1.3.12 > 10.1.3.3) ns3::TcpHeader (50000 > 49153 [RST|ACK] Seq=0 Ack=1 Win=65535)
- 1.02288 /NodeList/3/DeviceList/4/$ns3::PointToPointNetDevice/TxQueue/Dequeue ns3::PppHeader (Point-to-Point Protocol: IP (0x0021)) ns3::Ipv4Header (tos 0x0 DSCP Default ECN Not-ECT ttl 55 id 0 protocol 6 offset (bytes) 0 flags [none] length: 40 10.1.3.12 > 10.1.3.3) ns3::TcpHeader (50000 > 49153 [RST|ACK] Seq=0 Ack=1 Win=65535)
r 1.02486 /NodeList/5/DeviceList/2/$ns3::PointToPointNetDevice/MacRx ns3::PppHeader (Point-to-Point Protocol: IP (0x0021)) ns3::Ipv4Header (tos 0x0 DSCP Default ECN Not-ECT ttl 55 id 0 protocol 6 offset (bytes) 0 flags [none] length: 40 10.1.3.10 > 10.1.3.1) ns3::TcpHeader (50000 > 49153 [RST|ACK] Seq=0 Ack=1 Win=65535)
+ 1.02486 /NodeList/5/DeviceList/2/$ns3::PointToPointNetDevice/TxQueue/Enqueue ns3::PppHeader (Point-to-Point Protocol: IP (0x0021)) ns3::Ipv4Header (tos 0x0 DSCP Default ECN Not-ECT ttl 54 id 0 protocol 6 offset (bytes) 0 flags [none] length: 40 10.1.3.10 > 10.1.3.1) ns3::TcpHeader (50000 > 49153 [RST|ACK] Seq=0 Ack=1 Win=65535)
- 1.02486 /NodeList/5/DeviceList/2/$ns3::PointToPointNetDevice/TxQueue/Dequeue ns3::PppHeader (Point-to-Point Protocol: IP (0x0021)) ns3::Ipv4Header (tos 0x0 DSCP Default ECN Not-ECT ttl 54 id 0 protocol 6 offset (bytes) 0 flags [none] length: 40 10.1.3.10 > 10.1.3.1) ns3::TcpHeader (50000 > 49153 [RST|ACK] Seq=0 Ack=1 Win=65535)
r 1.02495 /NodeList/5/DeviceList/2/$ns3::PointToPointNetDevice/MacRx ns3::PppHeader (Point-to-Point Protocol: IP (0x0021)) ns3::Ipv4Header (tos 0x0 DSCP Default ECN Not-ECT ttl 55 id 0 protocol 6 offset (bytes) 0 flags [none] length: 40 10.1.3.12 > 10.1.3.3) ns3::TcpHeader (50000 > 49153 [RST|ACK] Seq=0 Ack=1 Win=65535)
+ 1.02495 /NodeList/5/DeviceList/2/$ns3::PointToPointNetDevice/TxQueue/Enqueue ns3::PppHeader (Point-to-Point Protocol: IP (0x0021)) ns3::Ipv4Header (tos 0x0 DSCP Default ECN Not-ECT ttl 54 id 0 protocol 6 offset (bytes) 0 flags [none] length: 40 10.1.3.12 > 10.1.3.3) ns3::TcpHeader (50000 > 49153 [RST|ACK] Seq=0 Ack=1 Win=65535)
- 1.02495 /NodeList/5/DeviceList/2/$ns3::PointToPointNetDevice/TxQueue/Dequeue ns3::PppHeader (Point-to-Point Protocol: IP (0x0021)) ns3::Ipv4Header (tos 0x0 DSCP Default ECN Not-ECT ttl 54 id 0 protocol 6 offset (bytes) 0 flags [none] length: 40 10.1.3.12 > 10.1.3.3) ns3::TcpHeader (50000 > 49153 [RST|ACK] Seq=0 Ack=1 Win=65535)
r 1.02692 /NodeList/3/DeviceList/4/$ns3::PointToPointNetDevice/MacRx ns3::PppHeader (Point-to-Point Protocol: IP (0x0021)) ns3::Ipv4Header (tos 0x0 DSCP Default ECN Not-ECT ttl 54 id 0 protocol 6 offset (bytes) 0 flags [none] length: 40 10.1.3.10 > 10.1.3.1) ns3::TcpHeader (50000 > 49153 [RST|ACK] Seq=0 Ack=1 Win=65535)
+ 1.02692 /NodeList/3/DeviceList/4/$ns3::PointToPointNetDevice/TxQueue/Enqueue ns3::PppHeader (Point-to-Point Protocol: IP (0x0021)) ns3::Ipv4Header (tos 0x0 DSCP Default ECN Not-ECT ttl 53 id 0 protocol 6 offset (bytes) 0 flags [none] length: 40 10.1.3.10 > 10.1.3.1) ns3::TcpHeader (50000 > 49153 [RST|ACK] Seq=0 Ack=1 Win=65535)
- 1.02692 /NodeList/3/DeviceList/4/$ns3::PointToPointNetDevice/TxQueue/Dequeue ns3::PppHeader (Point-to-Point Protocol: IP (0x0021)) ns3::Ipv4Header (tos 0x0 DSCP Default ECN Not-ECT ttl 53 id 0 protocol 6 offset (bytes) 0 flags [none] length: 40 10.1.3.10 > 10.1.3.1) ns3::TcpHeader (50000 > 49153 [RST|ACK] Seq=0 Ack=1 Win=65535)
r 1.02702 /NodeList/3/DeviceList/4/$ns3::PointToPointNetDevice/MacRx ns3::PppHeader (Point-to-Point Protocol: IP (0x0021)) ns3::Ipv4Header (tos 0x0 DSCP Default ECN Not-ECT ttl 54 id 0 protocol 6 offset (bytes) 0 flags [none] length: 40 10.1.3.12 > 10.1.3.3) ns3::TcpHeader (50000 > 49153 [RST|ACK] Seq=0 Ack=1 Win=65535)
+ 1.02702 /NodeList/3/DeviceList/4/$ns3::PointToPointNetDevice/TxQueue/Enqueue ns3::PppHeader (Point-to-Point Protocol: IP (0x0021)) ns3::Ipv4Header (tos 0x0 DSCP Default ECN Not-ECT ttl 53 id 0 protocol 6 offset (bytes) 0 flags [none] length: 40 10.1.3.12 > 10.1.3.3) ns3::TcpHeader (50000 > 49153 [RST|ACK] Seq=0 Ack=1 Win=65535)
- 1.02702 /NodeList/3/DeviceList/4/$ns3::PointToPointNetDevice/TxQueue/Dequeue ns3::PppHeader (Point-to-Point Protocol: IP (0x0021)) ns3::Ipv4Header (tos 0x0 DSCP Default ECN Not-ECT ttl 53 id 0 protocol 6 offset (bytes) 0 flags [none] length: 40 10.1.3.12 > 10.1.3.3) ns3::TcpHeader (50000 > 49153 [RST|ACK] Seq=0 Ack=1 Win=65535)
r 1.02899 /NodeList/5/DeviceList/2/$ns3::PointToPointNetDevice/MacRx ns3::PppHeader (Point-to-Point Protocol: IP (0x0021)) ns3::Ipv4Header (tos 0x0 DSCP Default ECN Not-ECT ttl 53 id 0 protocol 6 offset (bytes) 0 flags [none] length: 40 10.1.3.10 > 10.1.3.1) ns3::TcpHeader (50000 > 49153 [RST|ACK] Seq=0 Ack=1 Win=65535)
+ 1.02899 /NodeList/5/DeviceList/2/$ns3::PointToPointNetDevice/TxQueue/Enqueue ns3::PppHeader (Point-to-Point Protocol: IP (0x0021)) ns3::Ipv4Header (tos 0x0 DSCP Default ECN Not-ECT ttl 52 id 0 protocol 6 offset (bytes) 0 flags [none] length: 40 10.1.3.10 > 10.1.3.1) ns3::TcpHeader (50000 > 49153 [RST|ACK] Seq=0 Ack=1 Win=65535)
- 1.02899 /NodeList/5/DeviceList/2/$ns3::PointToPointNetDevice/TxQueue/Dequeue ns3::PppHeader (Point-to-Point Protocol: IP (0x0021)) ns3::Ipv4Header (tos 0x0 DSCP Default ECN Not-ECT ttl 52 id 0 protocol 6 offset (bytes) 0 flags [none] length: 40 10.1.3.10 > 10.1.3.1) ns3::TcpHeader (50000 > 49153 [RST|ACK] Seq=0 Ack=1 Win=65535)
r 1.02908 /NodeList/5/DeviceList/2/$ns3::PointToPointNetDevice/MacRx ns3::PppHeader (Point-to-Point Protocol: IP (0x0021)) ns3::Ipv4Header (tos 0x0 DSCP Default ECN Not-ECT ttl 53 id 0 protocol 6 offset (bytes) 0 flags [none] length: 40 10.1.3.12 > 10.1.3.3) ns3::TcpHeader (50000 > 49153 [RST|ACK] Seq=0 Ack=1 Win=65535)
+ 1.02908 /NodeList/5/DeviceList/2/$ns3::PointToPointNetDevice/TxQueue/Enqueue ns3::PppHeader (Point-to-Point Protocol: IP (0x0021)) ns3::Ipv4Header (tos 0x0 DSCP Default ECN Not-ECT ttl 52 id 0 protocol 6 offset (bytes) 0 flags [none] length: 40 10.1.3.12 > 10.1.3.3) ns3::TcpHeader (50000 > 49153 [RST|ACK] Seq=0 Ack=1 Win=65535)